<?xml version="1.0" encoding="UTF-8"?>

<!-- generated on 10/29/20 14:02:48 by Eclipse SUMO GUI Version 1.7.0
<configuration xmlns:xsi="http://www.w3.org/2001/XMLSchema-instance" xsi:noNamespaceSchemaLocation="http://sumo.dlr.de/xsd/sumoConfiguration.xsd">

    <input>
        <net-file value="sumo_simulation/smartcities.net.xml"/>
        <route-files value="sumo_simulation/smartcities.rou.xml"/>
        <additional-files value="sumo_simulation/smartcities.add.xml"/>
    </input>

    <output>
        <tripinfo-output value="tripinfo.xml"/>
    </output>

    <time>
        <begin value="0"/>
        <end value="14400"/>
    </time>

    <traci_server>
        <remote-port value="50245"/>
    </traci_server>

</configuration>
-->

<tripinfos xmlns:xsi="http://www.w3.org/2001/XMLSchema-instance" xsi:noNamespaceSchemaLocation="http://sumo.dlr.de/xsd/tripinfo_file.xsd">
    <tripinfo id="left_1" depart="3.00" departLane="CR_C_0" departPos="5.10" departSpeed="0.00" departDelay="3.00" arrival="38.00" arrivalLane="A_AL_1" arrivalPos="89.60" arrivalSpeed="14.07" duration="35.00" routeLength="394.90" waitingTime="0.00" waitingCount="0" stopTime="0.00" timeLoss="6.08" rerouteNo="0" devices="tripinfo_left_1" vType="medium_car" speedFactor="0.94" vaporized=""/>
    <tripinfo id="left_0" depart="0.00" departLane="CR_C_0" departPos="6.10" departSpeed="0.00" departDelay="0.00" arrival="44.00" arrivalLane="A_AL_0" arrivalPos="89.60" arrivalSpeed="15.53" duration="44.00" routeLength="393.90" waitingTime="0.00" waitingCount="0" stopTime="0.00" timeLoss="18.89" rerouteNo="0" devices="tripinfo_left_0" vType="slow_car" speedFactor="1.06" vaporized=""/>
    <tripinfo id="left_12" depart="4.00" departLane="DR_D_0" departPos="10.10" departSpeed="0.00" departDelay="0.00" arrival="44.00" arrivalLane="F_FL_0" arrivalPos="89.60" arrivalSpeed="15.45" duration="40.00" routeLength="389.90" waitingTime="0.00" waitingCount="0" stopTime="0.00" timeLoss="14.51" rerouteNo="0" devices="tripinfo_left_12" vType="slow_bus" speedFactor="1.03" vaporized=""/>
    <tripinfo id="rigth_28" depart="11.00" departLane="FL_F_0" departPos="5.10" departSpeed="0.00" departDelay="0.00" arrival="45.00" arrivalLane="D_DR_0" arrivalPos="89.60" arrivalSpeed="13.29" duration="34.00" routeLength="394.90" waitingTime="0.00" waitingCount="0" stopTime="0.00" timeLoss="3.86" rerouteNo="0" devices="tripinfo_rigth_28" vType="medium_car" speedFactor="0.89" vaporized=""/>
    <tripinfo id="rigth_41" depart="16.00" departLane="FL_F_0" departPos="5.10" departSpeed="0.00" departDelay="0.00" arrival="47.00" arrivalLane="D_DR_0" arrivalPos="89.60" arrivalSpeed="16.36" duration="31.00" routeLength="394.90" waitingTime="0.00" waitingCount="0" stopTime="0.00" timeLoss="6.15" rerouteNo="0" devices="tripinfo_rigth_41" vType="medium_car" speedFactor="1.09" vaporized=""/>
    <tripinfo id="right_10" depart="3.00" departLane="AL_A_0" departPos="3.10" departSpeed="0.00" departDelay="0.00" arrival="48.00" arrivalLane="F_FB_0" arrivalPos="89.60" arrivalSpeed="16.24" duration="45.00" routeLength="281.93" waitingTime="15.00" waitingCount="1" stopTime="0.00" timeLoss="26.50" rerouteNo="0" devices="tripinfo_right_10" vType="slow_motorcycle" speedFactor="1.08" vaporized=""/>
    <tripinfo id="north_46" depart="18.00" departLane="CT_C_0" departPos="5.10" departSpeed="0.00" departDelay="0.00" arrival="55.00" arrivalLane="D_DB_0" arrivalPos="89.60" arrivalSpeed="15.39" duration="37.00" routeLength="294.90" waitingTime="9.00" waitingCount="1" stopTime="0.00" timeLoss="17.15" rerouteNo="0" devices="tripinfo_north_46" vType="medium_car" speedFactor="1.03" vaporized=""/>
    <tripinfo id="north_63" depart="24.00" departLane="CT_C_0" departPos="5.10" departSpeed="0.00" departDelay="0.00" arrival="57.00" arrivalLane="D_DB_1" arrivalPos="89.60" arrivalSpeed="13.18" duration="33.00" routeLength="294.90" waitingTime="3.00" waitingCount="1" stopTime="0.00" timeLoss="9.72" rerouteNo="0" devices="tripinfo_north_63" vType="medium_car" speedFactor="0.88" vaporized=""/>
    <tripinfo id="north_27" depart="11.00" departLane="AT_A_0" departPos="6.10" departSpeed="0.00" departDelay="0.00" arrival="60.00" arrivalLane="F_FB_0" arrivalPos="89.60" arrivalSpeed="15.69" duration="49.00" routeLength="293.90" waitingTime="13.00" waitingCount="1" stopTime="0.00" timeLoss="29.54" rerouteNo="0" devices="tripinfo_north_27" vType="slow_car" speedFactor="1.05" vaporized=""/>
    <tripinfo id="north_35" depart="15.00" departLane="AT_A_0" departPos="6.10" departSpeed="0.00" departDelay="1.00" arrival="60.00" arrivalLane="F_FB_1" arrivalPos="89.60" arrivalSpeed="14.07" duration="45.00" routeLength="293.90" waitingTime="9.00" waitingCount="1" stopTime="0.00" timeLoss="23.79" rerouteNo="0" devices="tripinfo_north_35" vType="slow_car" speedFactor="0.94" vaporized=""/>
    <tripinfo id="north_38" depart="19.00" departLane="AT_A_0" departPos="6.10" departSpeed="0.00" departDelay="4.00" arrival="63.00" arrivalLane="F_FB_0" arrivalPos="89.60" arrivalSpeed="12.85" duration="44.00" routeLength="293.90" waitingTime="6.00" waitingCount="1" stopTime="0.00" timeLoss="20.64" rerouteNo="0" devices="tripinfo_north_38" vType="slow_car" speedFactor="0.86" vaporized=""/>
    <tripinfo id="north_96" depart="39.00" departLane="AT_A_0" departPos="5.10" departSpeed="0.00" departDelay="0.00" arrival="64.00" arrivalLane="F_FB_0" arrivalPos="89.60" arrivalSpeed="14.87" duration="25.00" routeLength="294.90" waitingTime="0.00" waitingCount="0" stopTime="0.00" timeLoss="7.90" rerouteNo="0" devices="tripinfo_north_96" vType="medium_car" speedFactor="1.16" vaporized=""/>
    <tripinfo id="left_57" depart="22.00" departLane="CR_C_0" departPos="4.10" departSpeed="0.00" departDelay="0.00" arrival="71.00" arrivalLane="A_AL_2" arrivalPos="89.60" arrivalSpeed="14.87" duration="49.00" routeLength="395.90" waitingTime="15.00" waitingCount="1" stopTime="0.00" timeLoss="21.85" rerouteNo="0" devices="tripinfo_left_57" vType="fast_car" speedFactor="0.99" vaporized=""/>
    <tripinfo id="left_24" depart="10.00" departLane="CR_C_0" departPos="5.10" departSpeed="0.00" departDelay="0.00" arrival="73.00" arrivalLane="A_AL_1" arrivalPos="89.60" arrivalSpeed="12.47" duration="63.00" routeLength="394.90" waitingTime="24.00" waitingCount="1" stopTime="0.00" timeLoss="30.89" rerouteNo="0" devices="tripinfo_left_24" vType="medium_car" speedFactor="0.83" vaporized=""/>
    <tripinfo id="left_85" depart="33.00" departLane="BT_B_0" departPos="3.10" departSpeed="0.00" departDelay="0.00" arrival="74.00" arrivalLane="A_AL_2" arrivalPos="89.60" arrivalSpeed="14.04" duration="41.00" routeLength="281.93" waitingTime="7.00" waitingCount="2" stopTime="0.00" timeLoss="19.04" rerouteNo="0" devices="tripinfo_left_85" vType="slow_motorcycle" speedFactor="0.94" vaporized=""/>
    <tripinfo id="left_110" depart="44.00" departLane="BT_B_0" departPos="3.10" departSpeed="0.00" departDelay="0.00" arrival="75.00" arrivalLane="A_AL_1" arrivalPos="89.60" arrivalSpeed="15.15" duration="31.00" routeLength="281.93" waitingTime="0.00" waitingCount="0" stopTime="0.00" timeLoss="10.47" rerouteNo="0" devices="tripinfo_left_110" vType="slow_motorcycle" speedFactor="1.01" vaporized=""/>
    <tripinfo id="left_3" depart="7.00" departLane="CR_C_0" departPos="10.10" departSpeed="0.00" departDelay="7.00" arrival="76.00" arrivalLane="A_AL_0" arrivalPos="89.60" arrivalSpeed="15.00" duration="69.00" routeLength="389.90" waitingTime="24.00" waitingCount="1" stopTime="0.00" timeLoss="42.71" rerouteNo="0" devices="tripinfo_left_3" vType="slow_bus" speedFactor="1.01" vaporized=""/>
    <tripinfo id="left_49" depart="19.00" departLane="DR_D_0" departPos="5.10" departSpeed="0.00" departDelay="0.00" arrival="79.00" arrivalLane="F_FL_0" arrivalPos="89.60" arrivalSpeed="15.71" duration="60.00" routeLength="394.90" waitingTime="25.00" waitingCount="1" stopTime="0.00" timeLoss="34.35" rerouteNo="0" devices="tripinfo_left_49" vType="medium_car" speedFactor="1.05" vaporized=""/>
    <tripinfo id="right_52" depart="20.00" departLane="AL_A_0" departPos="5.10" departSpeed="0.00" departDelay="0.00" arrival="79.00" arrivalLane="C_CR_0" arrivalPos="89.60" arrivalSpeed="16.84" duration="59.00" routeLength="394.90" waitingTime="24.00" waitingCount="1" stopTime="0.00" timeLoss="34.79" rerouteNo="0" devices="tripinfo_right_52" vType="medium_car" speedFactor="1.12" vaporized=""/>
    <tripinfo id="right_68" depart="26.00" departLane="AL_A_0" departPos="5.10" departSpeed="0.00" departDelay="0.00" arrival="88.00" arrivalLane="C_CR_1" arrivalPos="89.60" arrivalSpeed="14.12" duration="62.00" routeLength="394.90" waitingTime="24.00" waitingCount="1" stopTime="0.00" timeLoss="33.80" rerouteNo="0" devices="tripinfo_right_68" vType="medium_car" speedFactor="0.94" vaporized=""/>
    <tripinfo id="right_60" depart="23.00" departLane="AL_A_0" departPos="6.10" departSpeed="0.00" departDelay="0.00" arrival="94.00" arrivalLane="C_CR_0" arrivalPos="89.60" arrivalSpeed="13.90" duration="71.00" routeLength="393.90" waitingTime="25.00" waitingCount="1" stopTime="0.00" timeLoss="42.08" rerouteNo="0" devices="tripinfo_right_60" vType="slow_car" speedFactor="0.93" vaporized=""/>
    <tripinfo id="left_129" depart="53.00" departLane="CR_C_0" departPos="6.10" departSpeed="0.00" departDelay="0.00" arrival="95.00" arrivalLane="A_AL_0" arrivalPos="89.60" arrivalSpeed="12.38" duration="42.00" routeLength="393.90" waitingTime="0.00" waitingCount="0" stopTime="0.00" timeLoss="9.56" rerouteNo="0" devices="tripinfo_left_129" vType="slow_car" speedFactor="0.83" vaporized=""/>
    <tripinfo id="right_167" depart="70.00" departLane="AL_A_0" departPos="4.10" departSpeed="0.00" departDelay="0.00" arrival="100.00" arrivalLane="C_CR_0" arrivalPos="89.60" arrivalSpeed="16.98" duration="30.00" routeLength="395.90" waitingTime="0.00" waitingCount="0" stopTime="0.00" timeLoss="5.99" rerouteNo="0" devices="tripinfo_right_167" vType="fast_car" speedFactor="1.13" vaporized=""/>
    <tripinfo id="rigth_179" depart="75.00" departLane="FL_F_0" departPos="5.10" departSpeed="0.00" departDelay="0.00" arrival="105.00" arrivalLane="D_DR_0" arrivalPos="89.60" arrivalSpeed="17.68" duration="30.00" routeLength="394.90" waitingTime="0.00" waitingCount="0" stopTime="0.00" timeLoss="7.63" rerouteNo="0" devices="tripinfo_rigth_179" vType="medium_car" speedFactor="1.18" vaporized=""/>
    <tripinfo id="south_105" depart="43.00" departLane="DB_D_0" departPos="5.10" departSpeed="0.00" departDelay="0.00" arrival="110.00" arrivalLane="C_CT_0" arrivalPos="86.40" arrivalSpeed="15.27" duration="67.00" routeLength="294.90" waitingTime="40.00" waitingCount="1" stopTime="0.00" timeLoss="47.47" rerouteNo="0" devices="tripinfo_south_105" vType="medium_car" speedFactor="1.02" vaporized=""/>
    <tripinfo id="south_112" depart="45.00" departLane="DB_D_0" departPos="5.10" departSpeed="0.00" departDelay="0.00" arrival="111.00" arrivalLane="C_CT_1" arrivalPos="86.40" arrivalSpeed="13.34" duration="66.00" routeLength="294.90" waitingTime="34.00" waitingCount="1" stopTime="0.00" timeLoss="43.34" rerouteNo="0" devices="tripinfo_south_112" vType="medium_car" speedFactor="0.89" vaporized=""/>
    <tripinfo id="north_111" depart="45.00" departLane="AT_A_0" departPos="6.10" departSpeed="0.00" departDelay="0.00" arrival="114.00" arrivalLane="F_FB_0" arrivalPos="89.60" arrivalSpeed="14.63" duration="69.00" routeLength="293.90" waitingTime="33.00" waitingCount="1" stopTime="0.00" timeLoss="48.34" rerouteNo="0" devices="tripinfo_north_111" vType="slow_car" speedFactor="0.98" vaporized=""/>
    <tripinfo id="south_194" depart="84.00" departLane="FB_F_0" departPos="5.10" departSpeed="0.00" departDelay="3.00" arrival="117.00" arrivalLane="A_AT_1" arrivalPos="86.40" arrivalSpeed="17.58" duration="33.00" routeLength="294.90" waitingTime="4.00" waitingCount="1" stopTime="0.00" timeLoss="15.64" rerouteNo="0" devices="tripinfo_south_194" vType="medium_car" speedFactor="1.17" vaporized=""/>
    <tripinfo id="north_164" depart="69.00" departLane="CT_C_0" departPos="5.10" departSpeed="0.00" departDelay="0.00" arrival="118.00" arrivalLane="D_DB_1" arrivalPos="89.60" arrivalSpeed="14.23" duration="49.00" routeLength="294.90" waitingTime="20.00" waitingCount="1" stopTime="0.00" timeLoss="27.42" rerouteNo="0" devices="tripinfo_north_164" vType="medium_car" speedFactor="0.95" vaporized=""/>
    <tripinfo id="north_130" depart="53.00" departLane="CT_C_0" departPos="5.10" departSpeed="0.00" departDelay="0.00" arrival="119.00" arrivalLane="D_DB_0" arrivalPos="89.60" arrivalSpeed="13.09" duration="66.00" routeLength="294.90" waitingTime="36.00" waitingCount="1" stopTime="0.00" timeLoss="42.66" rerouteNo="0" devices="tripinfo_north_130" vType="medium_car" speedFactor="0.87" vaporized=""/>
    <tripinfo id="south_238" depart="98.00" departLane="DB_D_0" departPos="5.10" departSpeed="0.00" departDelay="0.00" arrival="121.00" arrivalLane="C_CT_0" arrivalPos="86.40" arrivalSpeed="15.57" duration="23.00" routeLength="294.90" waitingTime="0.00" waitingCount="0" stopTime="0.00" timeLoss="3.72" rerouteNo="0" devices="tripinfo_south_238" vType="medium_car" speedFactor="1.04" vaporized=""/>
    <tripinfo id="north_133" depart="54.00" departLane="AT_A_0" departPos="6.10" departSpeed="0.00" departDelay="0.00" arrival="122.00" arrivalLane="F_FB_0" arrivalPos="89.60" arrivalSpeed="13.76" duration="68.00" routeLength="293.90" waitingTime="32.00" waitingCount="1" stopTime="0.00" timeLoss="46.43" rerouteNo="0" devices="tripinfo_north_133" vType="slow_car" speedFactor="0.92" vaporized=""/>
    <tripinfo id="south_193" depart="81.00" departLane="FB_F_0" departPos="6.10" departSpeed="0.00" departDelay="0.00" arrival="123.00" arrivalLane="A_AT_0" arrivalPos="86.40" arrivalSpeed="15.08" duration="42.00" routeLength="293.90" waitingTime="5.00" waitingCount="1" stopTime="0.00" timeLoss="22.21" rerouteNo="0" devices="tripinfo_south_193" vType="slow_car" speedFactor="1.01" vaporized=""/>
    <tripinfo id="north_241" depart="99.00" departLane="CT_C_0" departPos="5.10" departSpeed="0.00" departDelay="0.00" arrival="123.00" arrivalLane="D_DB_0" arrivalPos="89.60" arrivalSpeed="15.65" duration="24.00" routeLength="294.90" waitingTime="0.00" waitingCount="0" stopTime="0.00" timeLoss="4.41" rerouteNo="0" devices="tripinfo_north_241" vType="medium_car" speedFactor="1.04" vaporized=""/>
    <tripinfo id="right_195" depart="81.00" departLane="AL_A_0" departPos="4.10" departSpeed="0.00" departDelay="0.00" arrival="133.00" arrivalLane="C_CR_0" arrivalPos="89.60" arrivalSpeed="14.92" duration="52.00" routeLength="395.90" waitingTime="19.00" waitingCount="1" stopTime="0.00" timeLoss="24.93" rerouteNo="0" devices="tripinfo_right_195" vType="fast_car" speedFactor="0.99" vaporized=""/>
    <tripinfo id="left_202" depart="84.00" departLane="CR_C_0" departPos="4.10" departSpeed="0.00" departDelay="0.00" arrival="133.00" arrivalLane="A_AL_0" arrivalPos="89.60" arrivalSpeed="15.30" duration="49.00" routeLength="395.90" waitingTime="16.00" waitingCount="1" stopTime="0.00" timeLoss="22.46" rerouteNo="0" devices="tripinfo_left_202" vType="fast_car" speedFactor="1.02" vaporized=""/>
    <tripinfo id="north_256" depart="105.00" departLane="CT_C_0" departPos="6.10" departSpeed="0.00" departDelay="0.00" arrival="134.00" arrivalLane="D_DB_0" arrivalPos="89.60" arrivalSpeed="13.51" duration="29.00" routeLength="293.90" waitingTime="0.00" waitingCount="0" stopTime="0.00" timeLoss="6.68" rerouteNo="0" devices="tripinfo_north_256" vType="slow_car" speedFactor="0.90" vaporized=""/>
    <tripinfo id="left_172" depart="72.00" departLane="DR_D_0" departPos="6.10" departSpeed="0.00" departDelay="0.00" arrival="138.00" arrivalLane="F_FL_0" arrivalPos="89.60" arrivalSpeed="13.97" duration="66.00" routeLength="393.90" waitingTime="18.00" waitingCount="1" stopTime="0.00" timeLoss="37.26" rerouteNo="0" devices="tripinfo_left_172" vType="slow_car" speedFactor="0.93" vaporized=""/>
    <tripinfo id="rigth_259" depart="105.00" departLane="EB_E_0" departPos="3.10" departSpeed="0.00" departDelay="0.00" arrival="138.00" arrivalLane="D_DB_0" arrivalPos="89.60" arrivalSpeed="12.76" duration="33.00" routeLength="273.36" waitingTime="2.00" waitingCount="1" stopTime="0.00" timeLoss="9.98" rerouteNo="0" devices="tripinfo_rigth_259" vType="slow_motorcycle" speedFactor="0.85" vaporized=""/>
    <tripinfo id="rigth_205" depart="85.00" departLane="FL_F_0" departPos="5.10" departSpeed="0.00" departDelay="0.00" arrival="141.00" arrivalLane="D_DR_0" arrivalPos="89.60" arrivalSpeed="14.60" duration="56.00" routeLength="394.90" waitingTime="21.00" waitingCount="1" stopTime="0.00" timeLoss="28.83" rerouteNo="0" devices="tripinfo_rigth_205" vType="medium_car" speedFactor="0.97" vaporized=""/>
    <tripinfo id="left_182" depart="76.00" departLane="DR_D_0" departPos="6.10" departSpeed="0.00" departDelay="0.00" arrival="146.00" arrivalLane="F_FL_0" arrivalPos="89.60" arrivalSpeed="16.95" duration="70.00" routeLength="393.90" waitingTime="24.00" waitingCount="1" stopTime="0.00" timeLoss="47.02" rerouteNo="0" devices="tripinfo_left_182" vType="slow_car" speedFactor="1.15" vaporized=""/>
    <tripinfo id="right_214" depart="89.00" departLane="AL_A_0" departPos="4.10" departSpeed="0.00" departDelay="0.00" arrival="146.00" arrivalLane="C_CR_0" arrivalPos="89.60" arrivalSpeed="17.69" duration="57.00" routeLength="395.90" waitingTime="26.00" waitingCount="1" stopTime="0.00" timeLoss="34.19" rerouteNo="0" devices="tripinfo_right_214" vType="fast_car" speedFactor="1.18" vaporized=""/>
    <tripinfo id="left_265" depart="110.00" departLane="CR_C_0" departPos="4.10" departSpeed="0.00" departDelay="2.00" arrival="146.00" arrivalLane="A_AL_2" arrivalPos="89.60" arrivalSpeed="17.53" duration="36.00" routeLength="395.90" waitingTime="4.00" waitingCount="1" stopTime="0.00" timeLoss="13.11" rerouteNo="0" devices="tripinfo_left_265" vType="fast_car" speedFactor="1.17" vaporized=""/>
    <tripinfo id="right_269" depart="109.00" departLane="AL_A_0" departPos="4.10" departSpeed="0.00" departDelay="0.00" arrival="146.00" arrivalLane="C_CR_1" arrivalPos="89.60" arrivalSpeed="16.44" duration="37.00" routeLength="395.90" waitingTime="5.00" waitingCount="1" stopTime="0.00" timeLoss="12.91" rerouteNo="0" devices="tripinfo_right_269" vType="fast_car" speedFactor="1.10" vaporized=""/>
    <tripinfo id="left_233" depart="96.00" departLane="DR_D_0" departPos="10.10" departSpeed="0.00" departDelay="0.00" arrival="147.00" arrivalLane="F_FL_1" arrivalPos="89.60" arrivalSpeed="14.36" duration="51.00" routeLength="389.90" waitingTime="7.00" waitingCount="1" stopTime="0.00" timeLoss="23.01" rerouteNo="0" devices="tripinfo_left_233" vType="slow_bus" speedFactor="0.96" vaporized=""/>
    <tripinfo id="left_217" depart="90.00" departLane="DR_D_0" departPos="6.10" departSpeed="0.00" departDelay="0.00" arrival="148.00" arrivalLane="F_FL_0" arrivalPos="89.60" arrivalSpeed="16.53" duration="58.00" routeLength="393.90" waitingTime="13.00" waitingCount="1" stopTime="0.00" timeLoss="33.81" rerouteNo="0" devices="tripinfo_left_217" vType="slow_car" speedFactor="1.10" vaporized=""/>
    <tripinfo id="rigth_246" depart="101.00" departLane="FL_F_0" departPos="5.10" departSpeed="0.00" departDelay="0.00" arrival="148.00" arrivalLane="D_DR_1" arrivalPos="89.60" arrivalSpeed="16.32" duration="47.00" routeLength="394.90" waitingTime="12.00" waitingCount="1" stopTime="0.00" timeLoss="22.22" rerouteNo="0" devices="tripinfo_rigth_246" vType="medium_car" speedFactor="1.09" vaporized=""/>
    <tripinfo id="left_251" depart="103.00" departLane="CR_C_0" departPos="5.10" departSpeed="0.00" departDelay="0.00" arrival="148.00" arrivalLane="A_AL_1" arrivalPos="89.60" arrivalSpeed="14.96" duration="45.00" routeLength="394.90" waitingTime="10.00" waitingCount="1" stopTime="0.00" timeLoss="18.32" rerouteNo="0" devices="tripinfo_left_251" vType="medium_car" speedFactor="1.00" vaporized=""/>
    <tripinfo id="right_225" depart="93.00" departLane="AL_A_0" departPos="5.10" departSpeed="0.00" departDelay="0.00" arrival="151.00" arrivalLane="C_CR_2" arrivalPos="89.60" arrivalSpeed="15.46" duration="58.00" routeLength="394.90" waitingTime="20.00" waitingCount="1" stopTime="0.00" timeLoss="32.10" rerouteNo="0" devices="tripinfo_right_225" vType="medium_car" speedFactor="1.03" vaporized=""/>
    <tripinfo id="left_220" depart="91.00" departLane="CR_C_0" departPos="5.10" departSpeed="0.00" departDelay="0.00" arrival="153.00" arrivalLane="A_AL_0" arrivalPos="89.60" arrivalSpeed="13.51" duration="62.00" routeLength="394.90" waitingTime="22.00" waitingCount="1" stopTime="0.00" timeLoss="31.88" rerouteNo="0" devices="tripinfo_left_220" vType="medium_car" speedFactor="0.90" vaporized=""/>
    <tripinfo id="left_264" depart="108.00" departLane="CR_C_0" departPos="5.10" departSpeed="0.00" departDelay="0.00" arrival="154.00" arrivalLane="A_AL_1" arrivalPos="89.60" arrivalSpeed="12.82" duration="46.00" routeLength="394.90" waitingTime="6.00" waitingCount="1" stopTime="0.00" timeLoss="15.10" rerouteNo="0" devices="tripinfo_left_264" vType="medium_car" speedFactor="0.85" vaporized=""/>
    <tripinfo id="left_304" depart="123.00" departLane="CR_C_0" departPos="5.10" departSpeed="0.00" departDelay="0.00" arrival="156.00" arrivalLane="A_AL_1" arrivalPos="89.60" arrivalSpeed="16.24" duration="33.00" routeLength="394.90" waitingTime="0.00" waitingCount="0" stopTime="0.00" timeLoss="7.83" rerouteNo="0" devices="tripinfo_left_304" vType="medium_car" speedFactor="1.08" vaporized=""/>
    <tripinfo id="right_284" depart="115.00" departLane="AL_A_0" departPos="6.10" departSpeed="0.00" departDelay="0.00" arrival="157.00" arrivalLane="C_CR_1" arrivalPos="89.60" arrivalSpeed="13.48" duration="42.00" routeLength="393.90" waitingTime="0.00" waitingCount="0" stopTime="0.00" timeLoss="12.66" rerouteNo="0" devices="tripinfo_right_284" vType="slow_car" speedFactor="0.90" vaporized=""/>
    <tripinfo id="left_268" depart="109.00" departLane="DR_D_0" departPos="6.10" departSpeed="0.00" departDelay="0.00" arrival="159.00" arrivalLane="F_FL_0" arrivalPos="89.60" arrivalSpeed="15.25" duration="50.00" routeLength="393.90" waitingTime="4.00" waitingCount="1" stopTime="0.00" timeLoss="23.45" rerouteNo="0" devices="tripinfo_left_268" vType="slow_car" speedFactor="1.02" vaporized=""/>
    <tripinfo id="left_290" depart="117.00" departLane="CR_C_0" departPos="6.10" departSpeed="0.00" departDelay="0.00" arrival="161.00" arrivalLane="A_AL_0" arrivalPos="89.60" arrivalSpeed="15.35" duration="44.00" routeLength="393.90" waitingTime="0.00" waitingCount="0" stopTime="0.00" timeLoss="18.01" rerouteNo="0" devices="tripinfo_left_290" vType="slow_car" speedFactor="1.02" vaporized=""/>
    <tripinfo id="rigth_236" depart="97.00" departLane="FL_F_0" departPos="10.10" departSpeed="0.00" departDelay="0.00" arrival="164.00" arrivalLane="D_DR_0" arrivalPos="89.60" arrivalSpeed="15.00" duration="67.00" routeLength="389.90" waitingTime="16.00" waitingCount="2" stopTime="0.00" timeLoss="42.62" rerouteNo="0" devices="tripinfo_rigth_236" vType="slow_bus" speedFactor="1.09" vaporized=""/>
    <tripinfo id="rigth_281" depart="114.00" departLane="FL_F_0" departPos="6.10" departSpeed="0.00" departDelay="0.00" arrival="164.00" arrivalLane="D_DR_1" arrivalPos="89.60" arrivalSpeed="14.94" duration="50.00" routeLength="393.90" waitingTime="2.00" waitingCount="1" stopTime="0.00" timeLoss="23.00" rerouteNo="0" devices="tripinfo_rigth_281" vType="slow_car" speedFactor="1.00" vaporized=""/>
    <tripinfo id="rigth_301" depart="122.00" departLane="FL_F_0" departPos="5.10" departSpeed="0.00" departDelay="0.00" arrival="165.00" arrivalLane="D_DR_1" arrivalPos="89.60" arrivalSpeed="14.54" duration="43.00" routeLength="394.90" waitingTime="2.00" waitingCount="1" stopTime="0.00" timeLoss="15.65" rerouteNo="0" devices="tripinfo_rigth_301" vType="medium_car" speedFactor="0.97" vaporized=""/>
    <tripinfo id="rigth_287" depart="118.00" departLane="FL_F_0" departPos="6.10" departSpeed="0.00" departDelay="2.00" arrival="166.00" arrivalLane="D_DR_0" arrivalPos="89.60" arrivalSpeed="15.25" duration="48.00" routeLength="393.90" waitingTime="0.00" waitingCount="0" stopTime="0.00" timeLoss="24.55" rerouteNo="0" devices="tripinfo_rigth_287" vType="slow_car" speedFactor="1.14" vaporized=""/>
    <tripinfo id="rigth_314" depart="127.00" departLane="FL_F_0" departPos="5.10" departSpeed="0.00" departDelay="0.00" arrival="167.00" arrivalLane="D_DR_1" arrivalPos="89.60" arrivalSpeed="15.24" duration="40.00" routeLength="394.90" waitingTime="1.00" waitingCount="1" stopTime="0.00" timeLoss="13.19" rerouteNo="0" devices="tripinfo_rigth_314" vType="medium_car" speedFactor="1.02" vaporized=""/>
    <tripinfo id="south_346" depart="140.00" departLane="DB_D_0" departPos="5.10" departSpeed="0.00" departDelay="0.00" arrival="172.00" arrivalLane="C_CT_1" arrivalPos="86.40" arrivalSpeed="15.60" duration="32.00" routeLength="294.90" waitingTime="4.00" waitingCount="1" stopTime="0.00" timeLoss="12.85" rerouteNo="0" devices="tripinfo_south_346" vType="medium_car" speedFactor="1.04" vaporized=""/>
    <tripinfo id="right_363" depart="147.00" departLane="AL_A_0" departPos="3.10" departSpeed="0.00" departDelay="0.00" arrival="173.00" arrivalLane="F_FB_0" arrivalPos="89.60" arrivalSpeed="15.35" duration="26.00" routeLength="281.93" waitingTime="0.00" waitingCount="0" stopTime="0.00" timeLoss="7.06" rerouteNo="0" devices="tripinfo_right_363" vType="slow_motorcycle" speedFactor="1.02" vaporized=""/>
    <tripinfo id="south_334" depart="135.00" departLane="DB_D_0" departPos="6.10" departSpeed="0.00" departDelay="0.00" arrival="176.00" arrivalLane="C_CT_0" arrivalPos="86.40" arrivalSpeed="13.60" duration="41.00" routeLength="293.90" waitingTime="5.00" waitingCount="1" stopTime="0.00" timeLoss="19.13" rerouteNo="0" devices="tripinfo_south_334" vType="slow_car" speedFactor="0.91" vaporized=""/>
    <tripinfo id="north_305" depart="123.00" departLane="CT_C_0" departPos="5.10" departSpeed="0.00" departDelay="0.00" arrival="178.00" arrivalLane="D_DB_0" arrivalPos="89.60" arrivalSpeed="16.79" duration="55.00" routeLength="294.90" waitingTime="28.00" waitingCount="1" stopTime="0.00" timeLoss="36.93" rerouteNo="0" devices="tripinfo_north_305" vType="medium_car" speedFactor="1.12" vaporized=""/>
    <tripinfo id="south_373" depart="152.00" departLane="FB_F_0" departPos="5.10" departSpeed="0.00" departDelay="0.00" arrival="179.00" arrivalLane="A_AT_0" arrivalPos="86.40" arrivalSpeed="14.10" duration="27.00" routeLength="294.90" waitingTime="0.00" waitingCount="0" stopTime="0.00" timeLoss="5.43" rerouteNo="0" devices="tripinfo_south_373" vType="medium_car" speedFactor="0.94" vaporized=""/>
    <tripinfo id="north_276" depart="112.00" departLane="AT_A_0" departPos="5.10" departSpeed="0.00" departDelay="0.00" arrival="181.00" arrivalLane="F_FB_0" arrivalPos="89.60" arrivalSpeed="15.05" duration="69.00" routeLength="294.90" waitingTime="39.00" waitingCount="1" stopTime="0.00" timeLoss="49.24" rerouteNo="0" devices="tripinfo_north_276" vType="medium_car" speedFactor="1.00" vaporized=""/>
    <tripinfo id="south_383" depart="156.00" departLane="DB_D_0" departPos="5.10" departSpeed="0.00" departDelay="0.00" arrival="181.00" arrivalLane="C_CT_0" arrivalPos="86.40" arrivalSpeed="14.33" duration="25.00" routeLength="294.90" waitingTime="0.00" waitingCount="0" stopTime="0.00" timeLoss="3.73" rerouteNo="0" devices="tripinfo_south_383" vType="medium_car" speedFactor="0.96" vaporized=""/>
    <tripinfo id="north_359" depart="146.00" departLane="CT_C_0" departPos="6.10" departSpeed="0.00" departDelay="0.00" arrival="183.00" arrivalLane="D_DB_1" arrivalPos="89.60" arrivalSpeed="15.33" duration="37.00" routeLength="293.90" waitingTime="2.00" waitingCount="1" stopTime="0.00" timeLoss="17.00" rerouteNo="0" devices="tripinfo_north_359" vType="slow_car" speedFactor="1.02" vaporized=""/>
    <tripinfo id="rigth_329" depart="133.00" departLane="FL_F_0" departPos="6.10" departSpeed="0.00" departDelay="0.00" arrival="190.00" arrivalLane="D_DR_0" arrivalPos="89.60" arrivalSpeed="13.23" duration="57.00" routeLength="393.90" waitingTime="9.00" waitingCount="1" stopTime="0.00" timeLoss="26.71" rerouteNo="0" devices="tripinfo_rigth_329" vType="slow_car" speedFactor="0.88" vaporized=""/>
    <tripinfo id="north_411" depart="167.00" departLane="CT_C_0" departPos="5.10" departSpeed="0.00" departDelay="0.00" arrival="191.00" arrivalLane="D_DB_0" arrivalPos="89.60" arrivalSpeed="14.97" duration="24.00" routeLength="294.90" waitingTime="0.00" waitingCount="0" stopTime="0.00" timeLoss="4.03" rerouteNo="0" devices="tripinfo_north_411" vType="medium_car" speedFactor="1.00" vaporized=""/>
    <tripinfo id="rigth_426" depart="172.00" departLane="EB_E_0" departPos="3.10" departSpeed="0.00" departDelay="0.00" arrival="199.00" arrivalLane="D_DB_0" arrivalPos="89.60" arrivalSpeed="17.22" duration="27.00" routeLength="273.36" waitingTime="0.00" waitingCount="0" stopTime="0.00" timeLoss="9.16" rerouteNo="0" devices="tripinfo_rigth_426" vType="slow_motorcycle" speedFactor="1.15" vaporized=""/>
    <tripinfo id="left_317" depart="128.00" departLane="CR_C_0" departPos="6.10" departSpeed="0.00" departDelay="0.00" arrival="200.00" arrivalLane="A_AL_0" arrivalPos="89.60" arrivalSpeed="14.80" duration="72.00" routeLength="393.90" waitingTime="24.00" waitingCount="1" stopTime="0.00" timeLoss="44.83" rerouteNo="0" devices="tripinfo_left_317" vType="slow_car" speedFactor="0.99" vaporized=""/>
    <tripinfo id="right_324" depart="131.00" departLane="AL_A_0" departPos="6.10" departSpeed="0.00" departDelay="0.00" arrival="200.00" arrivalLane="C_CR_0" arrivalPos="89.60" arrivalSpeed="14.06" duration="69.00" routeLength="393.90" waitingTime="21.00" waitingCount="1" stopTime="0.00" timeLoss="40.45" rerouteNo="0" devices="tripinfo_right_324" vType="slow_car" speedFactor="0.94" vaporized=""/>