<?xml version="1.0" encoding="UTF-8"?>

<!-- generated on 10/05/20 13:14:00 by Eclipse SUMO GUI Version 1.7.0
<configuration xmlns:xsi="http://www.w3.org/2001/XMLSchema-instance" xsi:noNamespaceSchemaLocation="http://sumo.dlr.de/xsd/sumoConfiguration.xsd">

    <input>
        <net-file value="sumo_simulation/smartcities.net.xml"/>
        <route-files value="sumo_simulation/smartcities.rou.xml"/>
        <additional-files value="sumo_simulation/smartcities.add.xml"/>
    </input>

    <output>
        <tripinfo-output value="tripinfo.xml"/>
    </output>

    <time>
        <begin value="0"/>
        <end value="2400"/>
    </time>

    <traci_server>
        <remote-port value="51779"/>
    </traci_server>

</configuration>
-->

<tripinfos xmlns:xsi="http://www.w3.org/2001/XMLSchema-instance" xsi:noNamespaceSchemaLocation="http://sumo.dlr.de/xsd/tripinfo_file.xsd">
</tripinfos>
