<?xml version="1.0" encoding="UTF-8"?>

<!-- generated on 10/27/20 17:10:46 by Eclipse SUMO GUI Version 1.7.0
<configuration xmlns:xsi="http://www.w3.org/2001/XMLSchema-instance" xsi:noNamespaceSchemaLocation="http://sumo.dlr.de/xsd/sumoConfiguration.xsd">

    <input>
        <net-file value="sumo_simulation/smartcities.net.xml"/>
        <route-files value="sumo_simulation/smartcities.rou.xml"/>
        <additional-files value="sumo_simulation/smartcities.add.xml"/>
    </input>

    <output>
        <tripinfo-output value="tripinfo.xml"/>
    </output>

    <time>
        <begin value="0"/>
        <end value="14400"/>
    </time>

    <traci_server>
        <remote-port value="58298"/>
    </traci_server>

</configuration>
-->

<tripinfos xmlns:xsi="http://www.w3.org/2001/XMLSchema-instance" xsi:noNamespaceSchemaLocation="http://sumo.dlr.de/xsd/tripinfo_file.xsd">
    <tripinfo id="left_1" depart="3.00" departLane="CR_C_0" departPos="5.10" departSpeed="0.00" departDelay="3.00" arrival="38.00" arrivalLane="A_AL_1" arrivalPos="89.60" arrivalSpeed="14.07" duration="35.00" routeLength="394.90" waitingTime="0.00" waitingCount="0" stopTime="0.00" timeLoss="6.08" rerouteNo="0" devices="tripinfo_left_1" vType="medium_car" speedFactor="0.94" vaporized=""/>
    <tripinfo id="left_0" depart="0.00" departLane="CR_C_0" departPos="6.10" departSpeed="0.00" departDelay="0.00" arrival="44.00" arrivalLane="A_AL_0" arrivalPos="89.60" arrivalSpeed="15.53" duration="44.00" routeLength="393.90" waitingTime="0.00" waitingCount="0" stopTime="0.00" timeLoss="18.89" rerouteNo="0" devices="tripinfo_left_0" vType="slow_car" speedFactor="1.06" vaporized=""/>
    <tripinfo id="left_12" depart="4.00" departLane="DR_D_0" departPos="10.10" departSpeed="0.00" departDelay="0.00" arrival="44.00" arrivalLane="F_FL_0" arrivalPos="89.60" arrivalSpeed="15.45" duration="40.00" routeLength="389.90" waitingTime="0.00" waitingCount="0" stopTime="0.00" timeLoss="14.51" rerouteNo="0" devices="tripinfo_left_12" vType="slow_bus" speedFactor="1.03" vaporized=""/>
    <tripinfo id="rigth_28" depart="11.00" departLane="FL_F_0" departPos="5.10" departSpeed="0.00" departDelay="0.00" arrival="45.00" arrivalLane="D_DR_0" arrivalPos="89.60" arrivalSpeed="13.29" duration="34.00" routeLength="394.90" waitingTime="0.00" waitingCount="0" stopTime="0.00" timeLoss="3.86" rerouteNo="0" devices="tripinfo_rigth_28" vType="medium_car" speedFactor="0.89" vaporized=""/>
    <tripinfo id="rigth_41" depart="16.00" departLane="FL_F_0" departPos="5.10" departSpeed="0.00" departDelay="0.00" arrival="47.00" arrivalLane="D_DR_0" arrivalPos="89.60" arrivalSpeed="16.36" duration="31.00" routeLength="394.90" waitingTime="0.00" waitingCount="0" stopTime="0.00" timeLoss="6.15" rerouteNo="0" devices="tripinfo_rigth_41" vType="medium_car" speedFactor="1.09" vaporized=""/>
    <tripinfo id="right_10" depart="3.00" departLane="AL_A_0" departPos="3.10" departSpeed="0.00" departDelay="0.00" arrival="48.00" arrivalLane="F_FB_0" arrivalPos="89.60" arrivalSpeed="16.24" duration="45.00" routeLength="281.93" waitingTime="15.00" waitingCount="1" stopTime="0.00" timeLoss="26.50" rerouteNo="0" devices="tripinfo_right_10" vType="slow_motorcycle" speedFactor="1.08" vaporized=""/>
    <tripinfo id="north_46" depart="18.00" departLane="CT_C_0" departPos="5.10" departSpeed="0.00" departDelay="0.00" arrival="55.00" arrivalLane="D_DB_0" arrivalPos="89.60" arrivalSpeed="15.39" duration="37.00" routeLength="294.90" waitingTime="9.00" waitingCount="1" stopTime="0.00" timeLoss="17.15" rerouteNo="0" devices="tripinfo_north_46" vType="medium_car" speedFactor="1.03" vaporized=""/>
    <tripinfo id="north_63" depart="24.00" departLane="CT_C_0" departPos="5.10" departSpeed="0.00" departDelay="0.00" arrival="57.00" arrivalLane="D_DB_1" arrivalPos="89.60" arrivalSpeed="13.18" duration="33.00" routeLength="294.90" waitingTime="3.00" waitingCount="1" stopTime="0.00" timeLoss="9.72" rerouteNo="0" devices="tripinfo_north_63" vType="medium_car" speedFactor="0.88" vaporized=""/>
    <tripinfo id="north_27" depart="11.00" departLane="AT_A_0" departPos="6.10" departSpeed="0.00" departDelay="0.00" arrival="60.00" arrivalLane="F_FB_0" arrivalPos="89.60" arrivalSpeed="15.69" duration="49.00" routeLength="293.90" waitingTime="13.00" waitingCount="1" stopTime="0.00" timeLoss="29.54" rerouteNo="0" devices="tripinfo_north_27" vType="slow_car" speedFactor="1.05" vaporized=""/>
    <tripinfo id="north_35" depart="15.00" departLane="AT_A_0" departPos="6.10" departSpeed="0.00" departDelay="1.00" arrival="60.00" arrivalLane="F_FB_1" arrivalPos="89.60" arrivalSpeed="14.07" duration="45.00" routeLength="293.90" waitingTime="9.00" waitingCount="1" stopTime="0.00" timeLoss="23.79" rerouteNo="0" devices="tripinfo_north_35" vType="slow_car" speedFactor="0.94" vaporized=""/>
    <tripinfo id="north_38" depart="19.00" departLane="AT_A_0" departPos="6.10" departSpeed="0.00" departDelay="4.00" arrival="63.00" arrivalLane="F_FB_0" arrivalPos="89.60" arrivalSpeed="12.85" duration="44.00" routeLength="293.90" waitingTime="6.00" waitingCount="1" stopTime="0.00" timeLoss="20.64" rerouteNo="0" devices="tripinfo_north_38" vType="slow_car" speedFactor="0.86" vaporized=""/>
    <tripinfo id="north_96" depart="39.00" departLane="AT_A_0" departPos="5.10" departSpeed="0.00" departDelay="0.00" arrival="64.00" arrivalLane="F_FB_0" arrivalPos="89.60" arrivalSpeed="14.87" duration="25.00" routeLength="294.90" waitingTime="0.00" waitingCount="0" stopTime="0.00" timeLoss="7.90" rerouteNo="0" devices="tripinfo_north_96" vType="medium_car" speedFactor="1.16" vaporized=""/>
    <tripinfo id="left_57" depart="22.00" departLane="CR_C_0" departPos="4.10" departSpeed="0.00" departDelay="0.00" arrival="71.00" arrivalLane="A_AL_2" arrivalPos="89.60" arrivalSpeed="14.87" duration="49.00" routeLength="395.90" waitingTime="15.00" waitingCount="1" stopTime="0.00" timeLoss="21.85" rerouteNo="0" devices="tripinfo_left_57" vType="fast_car" speedFactor="0.99" vaporized=""/>
    <tripinfo id="left_24" depart="10.00" departLane="CR_C_0" departPos="5.10" departSpeed="0.00" departDelay="0.00" arrival="73.00" arrivalLane="A_AL_1" arrivalPos="89.60" arrivalSpeed="12.47" duration="63.00" routeLength="394.90" waitingTime="24.00" waitingCount="1" stopTime="0.00" timeLoss="30.89" rerouteNo="0" devices="tripinfo_left_24" vType="medium_car" speedFactor="0.83" vaporized=""/>
    <tripinfo id="left_85" depart="33.00" departLane="BT_B_0" departPos="3.10" departSpeed="0.00" departDelay="0.00" arrival="74.00" arrivalLane="A_AL_2" arrivalPos="89.60" arrivalSpeed="14.04" duration="41.00" routeLength="281.93" waitingTime="7.00" waitingCount="2" stopTime="0.00" timeLoss="19.04" rerouteNo="0" devices="tripinfo_left_85" vType="slow_motorcycle" speedFactor="0.94" vaporized=""/>
    <tripinfo id="left_110" depart="44.00" departLane="BT_B_0" departPos="3.10" departSpeed="0.00" departDelay="0.00" arrival="75.00" arrivalLane="A_AL_1" arrivalPos="89.60" arrivalSpeed="15.15" duration="31.00" routeLength="281.93" waitingTime="0.00" waitingCount="0" stopTime="0.00" timeLoss="10.47" rerouteNo="0" devices="tripinfo_left_110" vType="slow_motorcycle" speedFactor="1.01" vaporized=""/>
    <tripinfo id="left_3" depart="7.00" departLane="CR_C_0" departPos="10.10" departSpeed="0.00" departDelay="7.00" arrival="76.00" arrivalLane="A_AL_0" arrivalPos="89.60" arrivalSpeed="15.00" duration="69.00" routeLength="389.90" waitingTime="24.00" waitingCount="1" stopTime="0.00" timeLoss="42.71" rerouteNo="0" devices="tripinfo_left_3" vType="slow_bus" speedFactor="1.01" vaporized=""/>
    <tripinfo id="left_49" depart="19.00" departLane="DR_D_0" departPos="5.10" departSpeed="0.00" departDelay="0.00" arrival="79.00" arrivalLane="F_FL_0" arrivalPos="89.60" arrivalSpeed="15.71" duration="60.00" routeLength="394.90" waitingTime="25.00" waitingCount="1" stopTime="0.00" timeLoss="34.35" rerouteNo="0" devices="tripinfo_left_49" vType="medium_car" speedFactor="1.05" vaporized=""/>
    <tripinfo id="right_52" depart="20.00" departLane="AL_A_0" departPos="5.10" departSpeed="0.00" departDelay="0.00" arrival="79.00" arrivalLane="C_CR_0" arrivalPos="89.60" arrivalSpeed="16.84" duration="59.00" routeLength="394.90" waitingTime="24.00" waitingCount="1" stopTime="0.00" timeLoss="34.79" rerouteNo="0" devices="tripinfo_right_52" vType="medium_car" speedFactor="1.12" vaporized=""/>
    <tripinfo id="right_68" depart="26.00" departLane="AL_A_0" departPos="5.10" departSpeed="0.00" departDelay="0.00" arrival="88.00" arrivalLane="C_CR_1" arrivalPos="89.60" arrivalSpeed="14.12" duration="62.00" routeLength="394.90" waitingTime="24.00" waitingCount="1" stopTime="0.00" timeLoss="33.80" rerouteNo="0" devices="tripinfo_right_68" vType="medium_car" speedFactor="0.94" vaporized=""/>
</tripinfos>
